                         Program Version 4.0.1.2 - RELEASE -
|  1> !CPCM DLPNO-CCSD(T) Extrapolate(2/3,cc)  RIJCOSX GRIDX5 TightSCF KDIIS
|  2> %cpcm
|  3> smd true
|  4> solvent "Ethanol"
|  5> end
|  6> # Number of processors
|  7> %pal nprocs 24 end
|  8> # Memory per core
|  9> %maxcore 4000
| 10> %scf maxiter 500
| 11>     end
| 12> % mdci
| 13>    # Loose cut-off
| 14>    #  TCutPairs 1e-3
| 15>    #  TCutPNO 1e-6
| 16>    #  TCutMKN 1e-3
| 17>    # Normal cut-off
| 18>      TCutPairs 1e-4
| 19>      TCutPNO 3.33e-7
| 20>      TCutMKN 1e-3
| 21>    # Tight cut-off
| 22>    #TCutPairs 1e-5
| 23>    #TCutPNO 1e-7
| 24>    #TCutMKN 1e-4
| 25>    # Faster/less disk-IO for large jobs
| 26>    #LocalTrafo 3
| 27>    Density None
| 28> end
| 29> % output
| 30>    printlevel mini
| 31>    print[ P_SCFInfo ] 1
| 32>    print[ P_SCFIterInfo ] 1
| 33>    print[ P_OrbEn ] 0
| 34>    print[ P_Cartesian ] 0
| 35> end
| 36> % elprop
| 37>    Dipole False
| 38> end
| 39> * xyz 0 1
| 40>  C                  0.74689200    0.00001700   -0.00009000
| 41>  C                  1.47854600    1.12393100   -0.39914200
| 42>  C                  1.47845700   -1.12391400    0.39908700
| 43>  C                  2.86763800    1.07469300   -0.38086300
| 44>  H                  0.97949300    2.02630400   -0.73977800
| 45>  C                  2.86755300   -1.07473900    0.38099500
| 46>  H                  0.97930900   -2.02642800    0.73924900
| 47>  H                  3.44572100    1.94129700   -0.69312900
| 48>  H                  3.44557600   -1.94136800    0.69330200
| 49>  C                 -0.73825900   -0.00002000   -0.00014600
| 50>  C                 -1.45123200    1.14573300    0.37711400
| 51>  C                 -1.45132900   -1.14573900   -0.37725100
| 52>  C                 -2.84427000    1.14467600    0.37904200
| 53>  H                 -0.91514500    2.03829000    0.68951500
| 54>  C                 -2.84435100   -1.14462600   -0.37893200
| 55>  H                 -0.91530700   -2.03827200   -0.68986000
| 56>  H                 -3.38240100    2.03885500    0.68210500
| 57>  H                 -3.38256800   -2.03876400   -0.68196600
| 58>  N                  3.57016200   -0.00003400    0.00009900
| 59>  C                 -3.54528100    0.00003500    0.00012600
| 60>  H                 -4.63199300    0.00003100    0.00022500
| 61> *
| 62>
| 63>                          ****END OF INPUT****
 Total Charge           Charge          ....    0
 Multiplicity           Mult            ....    1
 Number of Electrons    NEL             ....   82
E(0)                                       ...   -476.296728772
E(0)                                       ...   -476.296728772
E(CORR)(strong-pairs)                      ...     -1.631366099
E(CORR)(weak-pairs)                        ...     -0.005799668
E(CORR)(corrected)                         ...     -1.637165766
E(TOT)                                     ...   -477.933894539
 Multiplicity           Mult            ....    1
 Number of Electrons    NEL             ....   82
 Basis Dimension        Dim             ....  486
E(0)                                       ...   -476.409906252
E(CORR)(strong-pairs)                      ...     -1.936433234
E(CORR)(weak-pairs)                        ...     -0.010118805
E(CORR)(corrected)                         ...     -1.946552039
E(TOT)                                     ...   -478.356458291
E(CCSD(T))                                 ...   -478.456920392
FINAL SINGLE POINT ENERGY      -478.692700254507
                             ****ORCA TERMINATED NORMALLY****
TOTAL RUN TIME: 0 days 1 hours 3 minutes 28 seconds 423 msec
