                         Program Version 4.2.1 -  RELEASE  -
|  1> # S-TS-I_9_DLPNO
|  2> # Memory per core
|  3> %maxcore 4000
|  4> # Number of processors
|  5> %pal nprocs 24 end
|  6> !  Extrapolate(2/3,cc) def2/J cc-pVTZ/C DLPNO-CCSD(T) NormalPNO TightSCF RIJCOSX GridX7
|  7> %cpcm
|  8> smd true
|  9> SMDsolvent "CH2Cl2"
| 10> end
| 11> %method
| 12> Grid 3
| 13> FinalGrid 5
| 14> end
| 15> %scf maxiter 500
| 16>     end
| 17> % mdci
| 18>    Density None
| 19> end
| 20> % output
| 21>    printlevel mini
| 22>    print[ P_SCFInfo ] 1
| 23>    print[ P_SCFIterInfo ] 1
| 24>    print[ P_OrbEn ] 0
| 25>    print[ P_Cartesian ] 0
| 26> end
| 27> % elprop
| 28>    Dipole False
| 29> end
| 30> * xyz 0 1
| 31> N  2.176653  0.113502  1.881946
| 32> C  2.837113  0.117463  3.223471
| 33> H  3.014347  -0.924393  3.49368
| 34> H  2.111614  0.531992  3.923324
| 35> C  4.148547  0.925578  3.142414
| 36> H  4.989093  0.223626  3.194888
| 37> C  4.212621  1.593428  1.744334
| 38> H  5.094667  2.236183  1.686922
| 39> C  4.294456  0.493834  0.675308
| 40> H  5.23446  -0.057456  0.766791
| 41> H  4.257972  0.94504  -0.319314
| 42> C  3.10479  -0.461521  0.858258
| 43> H  2.532749  -0.597113  -0.057238
| 44> H  3.401019  -1.440385  1.238515
| 45> C  2.947528  2.429393  1.505751
| 46> H  3.017515  2.912511  0.52938
| 47> H  2.854318  3.210999  2.26309
| 48> C  1.708239  1.510038  1.548001
| 49> H  1.055767  1.773899  2.38425
| 50> C  0.843748  1.522439  0.273929
| 51> C  4.357396  1.936045  4.24109
| 52> H  5.365132  2.351871  4.255938
| 53> C  3.479389  2.38276  5.139467
| 54> H  2.452109  2.032506  5.198225
| 55> H  3.772089  3.13662  5.864884
| 56> N  -1.780541  4.997108  0.347236
| 57> C  -0.578185  5.033027  -0.178167
| 58> H  -0.256963  5.981747  -0.602388
| 59> C  0.29481  3.921305  -0.22506
| 60> H  1.259414  4.01842  -0.710362
| 61> C  -0.09312  2.722741  0.314739
| 62> C  -1.400442  2.634505  0.88948
| 63> C  -1.936047  1.446754  1.439472
| 64> H  -1.359388  0.530354  1.476773
| 65> C  -3.225554  1.411942  1.927152
| 66> C  -4.032409  2.577186  1.904461
| 67> H  -5.046664  2.55934  2.285797
| 68> C  -3.522151  3.743588  1.388884
| 69> H  -4.127807  4.644375  1.36191
| 70> C  -2.207121  3.808362  0.868136
| 71> C  4.022341  -3.307407  -1.050979
| 72> C  2.676832  -3.649017  -1.046004
| 73> C  1.750706  -2.877966  -1.753166
| 74> C  2.182375  -1.782844  -2.508884
| 75> C  3.527937  -1.438872  -2.536447
| 76> C  4.421752  -2.199924  -1.792112
| 77> H  4.745671  -3.881435  -0.485241
| 78> H  2.336421  -4.50473  -0.473828
| 79> H  1.475282  -1.185439  -3.074845
| 80> H  3.871839  -0.587081  -3.109854
| 81> N  5.83235  -1.803232  -1.764463
| 82> O  6.18312  -0.862538  -2.464829
| 83> O  6.593415  -2.426427  -1.034539
| 84> C  0.298615  -3.249879  -1.641107
| 85> N  -0.534149  -2.200379  -1.575483
| 86> N  -1.894314  -2.388888  -1.382258
| 87> O  -0.082996  -4.424567  -1.584698
| 88> H  -0.270701  -1.211605  -1.761444
| 89> O  1.659361  1.535356  -0.873271
| 90> H  1.079095  1.207414  -1.595997
| 91> H  0.235796  0.610349  0.266358
| 92> O  -3.649134  0.215905  2.411551
| 93> C  -4.980262  0.101863  2.894738
| 94> H  -5.711809  0.323264  2.109363
| 95> H  -5.092933  -0.93599  3.209197
| 96> H  -5.148979  0.759392  3.754949
| 97> H  -2.211267  -3.226367  -1.870067
| 98> H  -2.360735  -1.531742  -1.721036
| 99> C  -3.806858  -4.688622  0.527503
|100> C  -5.073166  -5.230837  0.332562
|101> C  -6.177513  -4.395314  0.15683
|102> C  -6.01112  -3.010955  0.170053
|103> C  -4.744925  -2.466931  0.361553
|104> C  -3.63241  -3.298211  0.551342
|105> H  -2.957429  -5.352273  0.653708
|106> H  -5.199354  -6.308928  0.31583
|107> H  -7.163851  -4.823716  0.006684
|108> H  -6.865083  -2.355702  0.028801
|109> H  -4.607661  -1.388992  0.365945
|110> C  -2.324239  -2.657021  0.753585
|111> H  -2.347254  -1.576647  0.8468
|112> C  -1.215199  -3.298381  1.264444
|113> H  -1.06328  -4.365443  1.311679
|114> N  -0.1207  -2.567579  1.670575
|115> O  0.901422  -3.157886  2.05958
|116> O  -0.165419  -1.305501  1.676797
|117> H  1.338195  -0.503617  1.926474
|118> C  -1.538265  2.3293  -2.891832
|119> C  -0.479407  2.940024  -3.569758
|120> C  -0.582614  4.263937  -3.989589
|121> C  -1.740347  4.993587  -3.717976
|122> C  -2.796961  4.391268  -3.03523
|123> C  -2.699055  3.061939  -2.631831
|124> H  0.424183  2.371941  -3.766899
|125> H  0.241728  4.72885  -4.522469
|126> H  -1.817424  6.029862  -4.034104
|127> H  -3.694408  4.959713  -2.809992
|128> H  -3.515908  2.584257  -2.1004
|129> C  -1.430855  0.89561  -2.429623
|130> O  -0.255728  0.402186  -2.347495
|131> O  -2.481854  0.272913  -2.160932
|132> *
|133>
|134>                          ****END OF INPUT****
 Total Charge           Charge          ....    0
 Multiplicity           Mult            ....    1
 Number of Electrons    NEL             ....  410
E(0)                                       ...  -2616.486116755
E(0)                                       ...  -2616.486116755
E(CORR)(strong-pairs)                      ...     -8.432708615
E(CORR)(weak-pairs)                        ...     -0.083638086
E(CORR)(corrected)                         ...     -8.516346701
E(TOT)                                     ...  -2625.002463456
 Multiplicity           Mult            ....    1
 Number of Electrons    NEL             ....  410
 Basis Dimension        Dim             .... 2326
E(0)                                       ...  -2617.154859753
E(CORR)(strong-pairs)                      ...    -10.142152956
E(CORR)(weak-pairs)                        ...     -0.111154928
E(CORR)(corrected)                         ...    -10.253307884
E(TOT)                                     ...  -2627.408167636
E(CCSD(T))                                 ...  -2627.897023141
FINAL SINGLE POINT ENERGY     -2629.226638438938
                             ****ORCA TERMINATED NORMALLY****
TOTAL RUN TIME: 0 days 21 hours 39 minutes 0 seconds 534 msec
